80
Lattice="11.568266940211918 0.0 0.0 0.0 10.018413047983197 0.0 0.0 0.0 17.08408780295671" Properties=species:S:1:pos:R:3:tags:I:1:initial_magmoms:R:1:forces:R:3 energy=-255.69667053222656 stress="0.003387665143236518 4.0927581721916795e-05 -1.9591234377003275e-05 4.0927581721916795e-05 0.0032824771478772163 0.0001429916883353144 -1.9591234377003275e-05 0.0001429916883353144 -0.00012349890312179923" free_energy=-255.69667053222656 pbc="T T T"
Pd       0.01558796       0.04530071       4.89610980        4       0.00000000      -0.00126520       0.00179662      -0.00314029
Pd       2.90629790       0.04603419       4.89546719        4       0.00000000       0.00371407       0.00984975      -0.00780632
Pd       5.80069454       0.04298371       4.90025713        4       0.00000000      -0.00506576       0.00374851      -0.00088068
Pd       8.68906310       0.03893633       4.90510011        4       0.00000000       0.00323479       0.00204276      -0.00662978
Pd       1.45961814       2.55594794       4.90276998        4       0.00000000      -0.00097255      -0.00448033      -0.00993779
Pd       4.35333171       2.55291961       4.89987148        4       0.00000000       0.00075595       0.00133505       0.00387799
Pd       7.24555811       2.54709295       4.90557374        4       0.00000000       0.00204656       0.00427055       0.00395548
Pd      10.13449874       2.55330622       4.90320900        4       0.00000000       0.00197315      -0.00747125      -0.00485088
Pd       0.00938197       5.06056958       4.90532883        4       0.00000000       0.00174171      -0.00715377      -0.00158775
Pd       2.90725810       5.05555271       4.89729870        4       0.00000000      -0.00115533       0.00056993       0.00534592
Pd       5.80506586       5.05367764       4.90487502        4       0.00000000      -0.00256270       0.00138696       0.00238463
Pd       8.69133845       5.05603254       4.91612933        4       0.00000000       0.00190662      -0.00318959      -0.00848570
Pd       1.46323347       7.55602805       4.89365570        4       0.00000000      -0.00844773       0.00948143       0.00084443
Pd       4.35492751       7.55860000       4.89547183        4       0.00000000       0.00493517      -0.00047964      -0.00103775
Pd       7.24679283       7.55593755       4.91198802        4       0.00000000      -0.00091723      -0.00209814      -0.01382133
Pd      10.13650068       7.55540418       4.90833500        4       0.00000000      -0.00431957       0.00688530       0.00012077
Ag       1.46064755       0.88360918       7.17752116        3       0.00000000       0.00543547       0.00260258       0.00062265
Ag       4.35486407       0.88499000       7.17870486        3       0.00000000      -0.00800623      -0.00058009       0.00279912
Ag       7.24547470       0.87818098       7.18796610        3       0.00000000      -0.00313706       0.00067433       0.00359532
Ag      10.13415949       0.87862174       7.17683583        3       0.00000000       0.00522199       0.00273581      -0.00138922
Ag       0.01076356       3.39116409       7.18534100        3       0.00000000       0.00530007       0.00171979       0.00823376
Ag       2.90648932       3.39032273       7.18597899        3       0.00000000       0.00005794       0.00266790       0.00506183
Ag       5.80011255       3.38650963       7.19003648        3       0.00000000       0.00182673      -0.00076623      -0.00037410
Ag       8.69208757       3.38524992       7.19456826        3       0.00000000      -0.00214642       0.00044574       0.00295645
Ag       1.45734058       5.89075371       7.18329951        3       0.00000000       0.00540318       0.00279268       0.00501329
Ag       4.35531615       5.88846913       7.17941679        3       0.00000000       0.00326453       0.00275136       0.00200317
Ag       7.24866592       5.88982821       7.20339607        3       0.00000000      -0.00573063      -0.00166060      -0.00162240
Ag      10.13506802       5.89299947       7.20756300        3       0.00000000      -0.00258941      -0.00161532      -0.00296357
Ag       0.01634128       8.39542473       7.17920288        3       0.00000000       0.00274577      -0.00554258       0.00420544
Ag       2.90739544       8.39622935       7.17160103        3       0.00000000       0.00146970       0.00252853      -0.00241181
Ag       5.80011886       8.39287427       7.18579631        3       0.00000000      -0.00947821       0.00337528       0.00436989
Ag       8.68888326       8.38950251       7.19857904        3       0.00000000       0.00350274       0.00277462      -0.00306952
Ag       0.00523123       1.72668161       9.59255545        2       0.00000000       0.00309911      -0.00651070       0.00469691
Ag       2.90213831       1.73129779       9.61017419        2       0.00000000       0.00319779      -0.00110405       0.00605939
Ag       5.80752075       1.71555263       9.61798236        2       0.00000000      -0.00138961      -0.00057976      -0.00487893
Ag       8.69193623       1.72385160       9.62380198        2       0.00000000      -0.00560809      -0.00313652       0.00202399
Ag       1.45131959       4.22328897       9.62620368        2       0.00000000       0.00001684       0.00470858      -0.00054407
Ag       4.35999804       4.22642822       9.63367611        2       0.00000000      -0.01244705       0.00310675      -0.01256158
Ag       7.25625034       4.22855501       9.62617136        2       0.00000000       0.00022952       0.00292207      -0.00620679
Ag      10.13238361       4.24175902       9.64132160        2       0.00000000       0.00758954      -0.00177552       0.00639264
Ag       0.00825648       6.72698340       9.63155510        2       0.00000000       0.00031012      -0.00076890      -0.00764663
Ag       2.91661851       6.73301815       9.59486879        2       0.00000000       0.00277639      -0.00789718      -0.00244554
Ag       5.80694009       6.72596157       9.62455092        2       0.00000000       0.00292544       0.00163614       0.00532077
Ag       8.68289159       6.72320230       9.66181838        2       0.00000000      -0.01009026       0.01138100      -0.00466988
Ag       1.46751035       9.23156342       9.60897289        2       0.00000000      -0.00484107       0.00001004       0.00433873
Ag       4.34718197       9.24109557       9.59925328        2       0.00000000      -0.00260621       0.00154647      -0.00253154
Ag       7.23459788       9.22587242       9.62957150        2       0.00000000       0.00510759      -0.00169221       0.00443073
Ag      10.13910227       9.22742602       9.60945455        2       0.00000000       0.00768651      -0.00231545       0.00488141
Ag       0.01815596       0.03462241      12.05847362        1       0.00000000       0.01197343       0.00922921      -0.00886859
Ag       2.89232645       0.05958061      12.16447411        1       0.00000000      -0.02262440       0.00906767      -0.00798828
Ag       5.76347647       0.04784575      12.16769879        1       0.00000000       0.02263454      -0.00263727      -0.00127926
Ag       8.70148707       0.08530038      12.04081580        1       0.00000000      -0.01251553      -0.00227191      -0.00104721
Ag       1.44668862       2.52573575      12.15935257        1       0.00000000      -0.00566978      -0.00759572       0.00623127
Ag       4.34766492       2.56372343      12.12315292        1       0.00000000      -0.00829756      -0.00914095      -0.00114373
Ag       7.22831652       2.56054780      12.13631839        1       0.00000000       0.00458935      -0.00096802       0.01134726
Ag      10.14919358       2.57056247      12.11533079        1       0.00000000       0.00001764      -0.00826652       0.00125855
Ag       0.06271403       5.08715178      12.28702470        1       0.00000000       0.00070202       0.00756204       0.00043745
Ag       2.91733526       5.07455185      12.05926933        1       0.00000000      -0.00242513       0.00006716       0.00076809
Ag       5.79210961       5.06498980      12.15044410        1       0.00000000      -0.00085070       0.01282462      -0.01490582
Ag       8.69319885       5.06577060      12.34172396        1       0.00000000       0.01102363       0.00669237      -0.00909874
Ag       1.48600034       7.56593307      12.06058986        1       0.00000000      -0.00272680       0.01252111      -0.01373905
Ag       4.35344755       7.57242984      12.06675419        1       0.00000000      -0.00172088      -0.01362846      -0.00587034
Ag       7.23408931       7.60890235      12.30963459        1       0.00000000       0.00223273       0.00247142      -0.00193363
Ag      10.13157295       7.59944584      12.14695974        1       0.00000000      -0.00096477      -0.00765071       0.00379206
H       11.59921961       3.34724950      12.96838484        0       1.00000000      -0.00147658      -0.00062413       0.00683488
H        1.40256736       0.81962349      12.94317520        0       1.00000000       0.00024641       0.00798126       0.00637801
H        4.04559948       5.90605038      15.16689642        0       1.00000000      -0.00125788       0.00220126      -0.01070782
H        0.57417440       8.25610229      15.29970768        0       1.00000000      -0.01480065      -0.00053026       0.00157921
H        4.33373892       0.91278250      12.93939051        0       1.00000000      -0.00427753       0.00199360       0.02493191
H        5.74917055       3.40022418      12.93634670        0       1.00000000       0.00659714      -0.00583428       0.00792593
H        8.78345238       8.55792305      12.97753359        0       1.00000000       0.00129290       0.00140923       0.00297792
H        9.64253175       0.94210668      15.71399845        0       1.00000000       0.00353038      -0.00672103       0.01170310
H        1.30777856      -1.64006299      15.37682544        0       1.00000000       0.02400143      -0.00570357      -0.00014160
H        7.15863336       5.90579405      13.04162626        0       1.00000000       0.00284303       0.00550639      -0.00752309
H        1.61928862       5.98415174      12.96473086        0       1.00000000       0.00366693      -0.00926964       0.00297035
H        3.90089567       6.17748132      15.85026177        0       1.00000000      -0.00893775       0.00373833       0.00732591
H        8.69484767       3.25303408      12.98374625        0       1.00000000      -0.01177753      -0.00231321       0.00254136
H        5.68354667       8.41343576      12.98599057        0       1.00000000       0.00577214      -0.00423187       0.00342327
H       10.18045012       5.99043196      13.02096342        0       1.00000000       0.00608185      -0.00723277       0.00508380
H        9.09023293       1.04687816      15.21943801        0       1.00000000      -0.00158075      -0.01957427      -0.00530453
