80
Lattice="11.568266940211918 0.0 0.0 0.0 10.018413047983197 0.0 0.0 0.0 17.08408780295671" Properties=species:S:1:pos:R:3:tags:I:1:initial_magmoms:R:1:forces:R:3 energy=-268.3700866699219 stress="0.0021586469374597073 0.00010241055861115456 0.0001949956058524549 0.00010241055861115456 0.002386863576248288 -0.00021279907377902418 0.0001949956058524549 -0.00021279907377902418 5.1977563998661935e-05" free_energy=-268.3700866699219 pbc="T T T"
Ag       0.01269574      -0.02218500       5.04998276        4       0.00000000       0.00279222      -0.00412605       0.00283391
Ag       2.90303811      -0.02285507       5.05393575        4       0.00000000       0.00540487      -0.00116572       0.00007670
Ag       5.79567953      -0.02245928       5.05249730        4       0.00000000       0.00400218      -0.00046581      -0.00356197
Ag       8.68910239      -0.02160430       5.04827878        4       0.00000000       0.00210255      -0.00541198       0.00226498
Ag       1.45793352       2.48135381       5.05178116        4       0.00000000       0.00416808      -0.00251074       0.00344999
Ag       4.34949408       2.48168883       5.05103264        4       0.00000000       0.00485537      -0.00190868      -0.00143216
Ag       7.24305483       2.48184024       5.04393580        4       0.00000000       0.00048417      -0.00093125       0.00515489
Ag      10.13488430       2.48221161       5.04823598        4       0.00000000       0.00339195      -0.00272046       0.00227129
Ag       0.01205179       4.98539501       5.04985346        4       0.00000000       0.00328230       0.00044676      -0.00023396
Ag       2.90355112       4.98541580       5.05067885        4       0.00000000       0.00518353      -0.00182684      -0.00050797
Ag       5.79660060       4.98663223       5.04710489        4       0.00000000       0.00184075      -0.00300649      -0.00247886
Ag       8.68825253       4.98674475       5.04277318        4       0.00000000       0.00407059      -0.00274701       0.00526688
Ag       1.45794581       7.49059375       5.05229099        4       0.00000000       0.00213011      -0.00302018      -0.00153674
Ag       4.34940622       7.49127135       5.05384375        4       0.00000000       0.00496713      -0.00217557      -0.00612335
Ag       7.24218839       7.49203742       5.04972526        4       0.00000000       0.00397935      -0.00158468      -0.00187709
Ag      10.13407939       7.49136752       5.04739277        4       0.00000000       0.00419205      -0.00156033       0.00234786
Ag       1.46761489       0.80654114       7.51244897        3       0.00000000       0.00146107      -0.00411322      -0.00254786
Ag       4.35915461       0.80839933       7.50735067        3       0.00000000      -0.00012597      -0.00899229       0.00293891
Ag       7.25280115       0.80742550       7.50285905        3       0.00000000       0.00088831      -0.00081394       0.00263961
Ag      10.14569289       0.80559021       7.50509584        3       0.00000000      -0.00333512       0.00336771       0.00428883
Ag       0.02262589       3.30972340       7.50838333        3       0.00000000      -0.00231205      -0.00199799      -0.00046687
Ag       2.91324817       3.30864627       7.50941895        3       0.00000000       0.00205389       0.00208605       0.00089604
Ag       5.80597249       3.31141604       7.50083863        3       0.00000000       0.00351826      -0.00332480       0.00125385
Ag       8.69866578       3.31028839       7.50164084        3       0.00000000      -0.00013422      -0.00071024      -0.00258059
Ag       1.46852066       5.81182610       7.50544192        3       0.00000000      -0.00202642       0.00382572      -0.00326898
Ag       4.36078616       5.81467076       7.50147536        3       0.00000000      -0.00052922      -0.00017958       0.00479158
Ag       7.25254416       5.81549556       7.49976179        3       0.00000000      -0.00108743      -0.00035105       0.00459942
Ag      10.14309817       5.81484643       7.50103857        3       0.00000000       0.00011033      -0.00356432      -0.00035531
Ag       0.02088826       8.32001875       7.50434042        3       0.00000000       0.00552113      -0.00531267       0.00041453
Ag       2.91320739       8.32004407       7.50721876        3       0.00000000       0.00059388      -0.00020570      -0.00223318
Ag       5.80648622       8.32209163       7.50521415        3       0.00000000      -0.00230194      -0.00424314       0.00281643
Ag       8.69796783       8.32042183       7.50536665        3       0.00000000      -0.00008523       0.00075534      -0.00321965
Ag       0.03118332       1.63158719       9.94411198        2       0.00000000       0.00395608      -0.00565234      -0.00455295
Ag       2.92427093       1.63017288       9.94747734        2       0.00000000      -0.00903037       0.00397199      -0.01737431
Ag       5.81524288       1.63377747       9.93374753        2       0.00000000      -0.00155895      -0.00314267       0.00339504
Ag       8.70833001       1.63352313       9.93565559        2       0.00000000      -0.00133275      -0.00739171      -0.00514268
Ag       1.47868277       4.13241885       9.94338040        2       0.00000000      -0.00134622       0.00014818      -0.00915873
Ag       4.37154895       4.13653291       9.93354430        2       0.00000000      -0.00837919       0.00335458       0.00192923
Ag       7.26190410       4.13654603       9.93020763        2       0.00000000      -0.00257465       0.00795896      -0.00052008
Ag      10.15302852       4.13329031       9.93377084        2       0.00000000      -0.00302583       0.00868731       0.00516122
Ag       0.02860859       6.63491076       9.92745655        2       0.00000000       0.00101640       0.01301011       0.02139513
Ag       2.92281361       6.64082472       9.92983918        2       0.00000000       0.00130873      -0.00867341       0.00981240
Ag       5.81520854       6.64317285       9.93212404        2       0.00000000       0.00051017      -0.00104926      -0.00099793
Ag       8.70528990       6.64256318       9.93265832        2       0.00000000       0.00192134      -0.00501648       0.00049377
Ag       1.47554535       9.14531332       9.93874767        2       0.00000000      -0.00204115      -0.00285818      -0.00281918
Ag       4.36824828       9.14710569       9.93663141        2       0.00000000       0.00003752      -0.00017197       0.00278887
Ag       7.26130786       9.15022245       9.93612660        2       0.00000000      -0.00470147      -0.00732556      -0.00248535
Ag      10.15376875       9.14568005       9.93526571        2       0.00000000      -0.00078752      -0.00440185       0.00588181
Pd       0.03242964      -0.05231182      12.28210569        1       0.00000000       0.00874298       0.00540876      -0.00517225
Pd       2.92449812      -0.04771779      12.28280942        1       0.00000000       0.00802221       0.00256161      -0.00622210
Pd       5.81773317      -0.04063962      12.27764922        1       0.00000000       0.00551957       0.00526702      -0.00933743
Pd       8.71145261      -0.04484972      12.27549200        1       0.00000000      -0.00089499       0.00544457      -0.00130478
Pd       1.48234709       2.45294721      12.29074105        1       0.00000000      -0.01137187       0.01056507      -0.01819766
Pd       4.37241800       2.46302581      12.27714235        1       0.00000000       0.00354795      -0.00514813      -0.00012085
Pd       7.26656796       2.46403966      12.27076900        1       0.00000000      -0.00695927      -0.00776118       0.00605839
Pd      10.15763280       2.45536739      12.27938595        1       0.00000000      -0.00231984       0.01037402       0.00336868
Pd       0.03525297       4.95784628      12.27494069        1       0.00000000      -0.00871467       0.00260040      -0.00134724
Pd       2.92821446       4.96256791      12.27521306        1       0.00000000       0.00253223       0.00587278      -0.00374180
Pd       5.82122020       4.96845730      12.27109082        1       0.00000000       0.00245727      -0.00553731       0.00192380
Pd       8.71003597       4.96470729      12.27154771        1       0.00000000       0.00713896      -0.00232400      -0.00100601
Pd       1.48215210       7.46402755      12.26566808        1       0.00000000      -0.01304830      -0.00769597       0.02198666
Pd       4.37341093       7.46998587      12.27164782        1       0.00000000      -0.00150634      -0.00428439      -0.00526574
Pd       7.26520193       7.47371389      12.27361801        1       0.00000000       0.00030547      -0.00738207      -0.00420955
Pd      10.15517203       7.46349843      12.27416022        1       0.00000000       0.00940066       0.00784655      -0.01096332
H       11.60361933       3.28810811      12.99939143        0       1.00000000      -0.00476017       0.00826821      -0.00329623
H        2.92737699       3.29679276      12.99821646        0       1.00000000       0.00333031      -0.00365851       0.00151442
H        4.37811388       5.80036638      12.98815642        0       1.00000000      -0.01057769       0.00108691       0.00372443
H        0.03370828       8.28992212      12.99122013        0       1.00000000       0.00640417       0.01125787      -0.00268136
H        4.37224974       0.79280055      12.99276817        0       1.00000000      -0.00246268      -0.00096750       0.00377721
H        5.82034542       3.29681496      12.98806262        0       1.00000000       0.00127264       0.00562050       0.00244437
H        8.71350673       8.30437623      12.99151842        0       1.00000000      -0.00436625      -0.00188157       0.00165626
H       10.15766484       0.78339626      12.99832454        0       1.00000000      -0.00436281       0.00785027      -0.00287542
H        1.47874328       0.78012409      13.00380000        0       1.00000000      -0.00152228       0.00460684      -0.00284988
H        7.26999047       5.80394441      12.98914080        0       1.00000000      -0.01043936      -0.00307208       0.00003958
H        1.47953680       5.79004926      12.98851867        0       1.00000000       0.00377274       0.01899389       0.00045788
H        2.92940513       8.29611016      12.99090579        0       1.00000000      -0.01271698       0.00507526       0.00086160
H        8.71004192       3.29639356      12.99210189        0       1.00000000       0.00363070      -0.00151769      -0.00300007
H        5.81671612       8.30562587      12.98774385        0       1.00000000       0.00371425       0.00235124       0.00898248
H       10.15678697       5.79393878      12.99079408        0       1.00000000       0.00132665       0.00214992       0.00106344
H        7.26889894       0.79592570      12.98958863        0       1.00000000      -0.00812381      -0.00492999       0.00004506
