80
Lattice="11.568266940211918 0.0 0.0 0.0 10.018413047983197 0.0 0.0 0.0 17.08408780295671" Properties=species:S:1:pos:R:3:tags:I:1:initial_magmoms:R:1:forces:R:3 energy=-258.9673156738281 stress="0.0015529548982158303 0.00013271174975670874 -8.17264117358718e-06 0.00013271174975670874 0.0019157285569235682 -0.0001325621415162459 -8.17264117358718e-06 -0.0001325621415162459 -6.921251497260528e-06" free_energy=-258.9673156738281 pbc="T T T"
Ag       0.02159959       0.00434580       4.97122567        4       0.00000000       0.00485632      -0.00246094       0.00051083
Ag       2.91357134       0.00327348       4.98051372        4       0.00000000       0.00521957      -0.00450864       0.00020770
Ag       5.80372142      -0.00069038       4.98572098        4       0.00000000      -0.00263236      -0.00029777       0.00194768
Ag       8.69620345       0.00155154       4.97059980        4       0.00000000      -0.00346475      -0.00106469       0.00143597
Ag       1.46992791       2.50765431       4.97626397        4       0.00000000      -0.00073626      -0.00313074       0.00229698
Ag       4.36071258       2.50462073       4.99014065        4       0.00000000      -0.00116941      -0.00265915       0.00239097
Ag       7.25147601       2.50411428       4.98316791        4       0.00000000      -0.00032638       0.00305115       0.00187178
Ag      10.14299267       2.50688080       4.96872059        4       0.00000000      -0.00169093       0.00196524       0.00305808
Ag       0.02260578       5.01194298       4.96974899        4       0.00000000      -0.00043482       0.00248600      -0.00525838
Ag       2.91634366       5.00887197       4.97800564        4       0.00000000      -0.00154906      -0.00181521       0.00565320
Ag       5.80756807       5.00881428       4.98252871        4       0.00000000      -0.00166005      -0.00604007       0.00460052
Ag       8.69881057       5.01089187       4.98131642        4       0.00000000      -0.00131942      -0.00286790      -0.00383549
Ag       1.46903505       7.51713564       4.96628579        4       0.00000000       0.00024548      -0.00627640       0.00018808
Ag       4.36072635       7.51149149       4.97439211        4       0.00000000      -0.00041239       0.00133639       0.00479659
Ag       7.25108925       7.51401994       4.97565265        4       0.00000000      -0.00179665      -0.00350074       0.00072919
Ag      10.14525344       7.51773005       4.97160650        4       0.00000000      -0.00037219      -0.00705263      -0.00451731
Ag       1.46975075       0.83523069       7.43616161        3       0.00000000      -0.00409670      -0.00139712       0.00141241
Ag       4.35459353       0.82929216       7.45568734        3       0.00000000       0.00153431      -0.00058060      -0.00882662
Ag       7.24594600       0.82930592       7.43750827        3       0.00000000       0.00931266      -0.00488166      -0.00019757
Ag      10.13773934       0.83272330       7.41962219        3       0.00000000      -0.00100717      -0.00327995      -0.00004958
Ag       0.01998737       3.34184925       7.41943753        3       0.00000000      -0.00695939      -0.00553952       0.00389069
Ag       2.91374333       3.33187316       7.44951329        3       0.00000000      -0.00485368       0.00221186      -0.00664795
Ag       5.80241099       3.32927078       7.44744990        3       0.00000000       0.00634218       0.01002943      -0.00216755
Ag       8.69505747       3.33434839       7.43898242        3       0.00000000       0.00405897      -0.00050504      -0.00239878
Ag       1.46724757       5.84370460       7.42376569        3       0.00000000       0.00698238      -0.00478686       0.00277559
Ag       4.36294371       5.83145461       7.44228831        3       0.00000000       0.00293501      -0.00073224      -0.00155072
Ag       7.25118323       5.83846373       7.43891185        3       0.00000000      -0.01043771      -0.00118378       0.00051896
Ag      10.14698330       5.84609677       7.43025679        3       0.00000000      -0.00821358      -0.00196184       0.00300879
Ag       0.02984773       8.34762468       7.42443515        3       0.00000000      -0.00880636       0.00764136      -0.00766051
Ag       2.91612336       8.34306963       7.42407630        3       0.00000000      -0.00088812       0.00173877      -0.00182345
Ag       5.80047862       8.33853604       7.43863983        3       0.00000000       0.00476704      -0.00588927      -0.00168387
Ag       8.69620613       8.34001031       7.42156269        3       0.00000000       0.00036989       0.01165740       0.00175803
Pd       0.00367711       1.67078465       9.72788949        2       0.00000000       0.00496789       0.01017736      -0.00888032
Pd       2.90964100       1.66057942       9.78392223        2       0.00000000      -0.00905315      -0.00045263      -0.01392509
Pd       5.80275937       1.65917391       9.76872358        2       0.00000000       0.01198761      -0.00808891      -0.00274290
Pd       8.69099233       1.65513816       9.76258434        2       0.00000000      -0.00243135       0.00467562      -0.00809557
Pd       1.45994253       4.18165909       9.74065337        2       0.00000000      -0.00065658      -0.01338648       0.00652142
Pd       4.35263305       4.15142399       9.77477140        2       0.00000000       0.00820400      -0.00103664       0.00185616
Pd       7.24854937       4.17278378       9.75312432        2       0.00000000       0.00560525       0.00022999      -0.00743024
Pd      10.13869097       4.18287899       9.73894669        2       0.00000000      -0.00691987      -0.00968623       0.00842494
Pd       0.02252303       6.68390539       9.75153008        2       0.00000000      -0.00346668       0.00015520       0.00547913
Pd       2.92422614       6.67326144       9.73451988        2       0.00000000       0.00449636       0.00029623      -0.00652207
Pd       5.80238794       6.66867528       9.77089516        2       0.00000000      -0.00098298       0.00120247      -0.00225389
Pd       8.68873508       6.66339573       9.74747867        2       0.00000000       0.00526336       0.00479941       0.00579686
Pd       1.48756918       9.18226650       9.74985093        2       0.00000000       0.00006454      -0.00489480      -0.00314600
Pd       4.34719284       9.16489129       9.75391027        2       0.00000000       0.00092618      -0.00144159       0.00485814
Pd       7.25055378       9.16434289       9.73804400        2       0.00000000      -0.00579431       0.00399564      -0.00299248
Pd      10.15113584       9.16589132       9.72464017        2       0.00000000      -0.00532240       0.00859578       0.00249982
Ag       0.02809014      -0.00553033      11.94439544        1       0.00000000      -0.01253072      -0.01090376       0.00305221
Ag       2.93174997       0.02371938      12.20146479        1       0.00000000       0.00069001      -0.00782557      -0.02518880
Ag       5.82367611      -0.04827250      12.04025859        1       0.00000000      -0.00771816       0.01387268       0.00867987
Ag       8.71698429      -0.01562639      12.00674325        1       0.00000000       0.00830338      -0.01327588      -0.00056909
Ag       1.42906270       2.50493363      12.04108559        1       0.00000000      -0.00269701       0.01140962       0.00741713
Ag       4.35151867       2.44717555      12.18088514        1       0.00000000      -0.00056222       0.00247496      -0.00392678
Ag       7.24299701       2.49626014      12.07062195        1       0.00000000      -0.00137418       0.00182779       0.00142646
Ag      10.13597290       2.49843806      12.06370231        1       0.00000000       0.01874169       0.01412808       0.00360022
Ag       0.01384173       5.01492438      12.12811186        1       0.00000000       0.00933044       0.00521159       0.01140886
Ag       2.90186874       5.02090202      12.05981703        1       0.00000000       0.00349097      -0.00506519       0.00180386
Ag       5.79228321       4.98159588      12.13584070        1       0.00000000      -0.01293283       0.00787081      -0.00193195
Ag       8.69178159       4.98986616      12.15162486        1       0.00000000       0.01297071       0.01277464       0.00856315
Ag       1.47990151       7.50491258      12.05223135        1       0.00000000      -0.00410726       0.00273808       0.00873375
Ag       4.35735990       7.50577522      12.16294080        1       0.00000000      -0.00496002      -0.01398871       0.00207095
Ag       7.26302134       7.50271961      12.14908456        1       0.00000000       0.00856953       0.00416415      -0.00106533
Ag      10.13030880       7.51527287      12.07436582        1       0.00000000       0.00505241      -0.01505054      -0.00437007
H       11.58323477       3.27444007      12.90477461        0       1.00000000      -0.00492609      -0.00237451       0.00358525
H        2.84282527       1.70983280      12.94600258        0       1.00000000      -0.01199128       0.00580845       0.01340322
H        4.32675676       5.77182304      12.92155653        0       1.00000000       0.00726862       0.00263125       0.00258824
H        0.08202873       8.94280778      14.96029856        0       1.00000000       0.01918528       0.00185994       0.01103719
H        4.43609537       0.79406212      12.96306688        0       1.00000000       0.00388214       0.00655666       0.00357363
H        5.81810609       3.29831891      12.93332739        0       1.00000000       0.00194791      -0.00820804      -0.00722435
H        8.76873739       8.43959024      12.92134732        0       1.00000000      -0.00698679       0.01088259       0.00152592
H        9.66713128       0.90373586      15.39902963        0       1.00000000      -0.02397774       0.01566344      -0.00552104
H        0.72799138      -0.81145488      15.23222694        0       1.00000000      -0.02323675       0.00364132       0.01061291
H        7.23549073       5.82042849      12.93368305        0       1.00000000       0.00084528       0.00698718       0.00218076
H        1.47627483       5.85075244      12.88576010        0       1.00000000      -0.00346699      -0.00076353      -0.00333539
H        2.82774516       8.34767624      12.95870663        0       1.00000000       0.00683100       0.00197885      -0.00512460
H        8.68400823       3.22168365      12.92681711        0       1.00000000       0.01578555       0.00614115      -0.00506660
H        5.84025965       8.37284482      12.92760088        0       1.00000000      -0.01028890      -0.00197125       0.00851183
H       10.15618759       5.89579134      12.92942373        0       1.00000000       0.01013748      -0.00592847      -0.00804885
H        8.94027850       1.06593639      15.33374383        0       1.00000000       0.00804042      -0.01811313      -0.01828472
