80
Lattice="11.568266940211918 0.0 0.0 0.0 10.018413047983197 0.0 0.0 0.0 17.08408780295671" Properties=species:S:1:pos:R:3:tags:I:1:initial_magmoms:R:1:forces:R:3 energy=-260.9299621582031 stress="-0.0008452372858300805 4.400670150062069e-05 2.2972984879743308e-05 4.400670150062069e-05 -0.0008749462431296706 7.744665344944224e-05 2.2972984879743308e-05 7.744665344944224e-05 4.4037227780791e-05" free_energy=-260.9299621582031 pbc="T T T"
Ag       0.02323169       0.02285093       5.01420232        4       0.00000000      -0.00040227       0.00064127       0.00084521
Ag       2.91268342       0.02845552       5.00600415        4       0.00000000       0.00262125       0.00410016       0.00545843
Ag       5.80485029       0.03046743       5.00800031        4       0.00000000       0.00027249      -0.00420806       0.00494091
Ag       8.69880001       0.02386583       5.01249623        4       0.00000000      -0.00379583      -0.00226842       0.00365029
Ag       1.46604203       2.53267583       5.01776254        4       0.00000000       0.00435928      -0.00118504       0.00593409
Ag       4.35887725       2.53890862       5.01258566        4       0.00000000      -0.00475095      -0.01082950      -0.00122522
Ag       7.25283876       2.53249002       5.01128719        4       0.00000000       0.00427329      -0.00238176       0.00602874
Ag      10.14584098       2.52902160       5.01194309        4       0.00000000      -0.00613908      -0.00235869       0.00862819
Ag       0.01606278       5.03183385       5.02434383        4       0.00000000       0.00928103       0.01436631      -0.00026109
Ag       2.91180439       5.03808568       5.01429383        4       0.00000000      -0.00628022      -0.00042663       0.00208676
Ag       5.80706777       5.03912149       5.01081398        4       0.00000000       0.00945420       0.00103589      -0.00291992
Ag       8.69888715       5.03375739       5.01872037        4       0.00000000      -0.00262192       0.00958089       0.00607643
Ag       1.46544526       7.53728919       5.01448596        4       0.00000000       0.00099461       0.00029486      -0.00512943
Ag       4.35906501       7.54216511       5.00692613        4       0.00000000       0.00507296       0.00035287      -0.00142238
Ag       7.25232149       7.54143930       5.01369052        4       0.00000000       0.00261937       0.00009134       0.00543328
Ag      10.14392890       7.53618427       5.03058875        4       0.00000000      -0.00530974       0.00320057      -0.01481302
Pd       1.46977479       0.86094385       7.26002478        3       0.00000000       0.00312591       0.00109042      -0.00778288
Pd       4.35791455       0.86843036       7.25283529        3       0.00000000       0.00229170      -0.00202585       0.00443079
Pd       7.25270775       0.86162239       7.25565931        3       0.00000000      -0.00484075      -0.00127109       0.00491286
Pd      10.14398372       0.85927699       7.25471019        3       0.00000000      -0.00376861      -0.00820318       0.00155733
Pd       0.01883553       3.36744713       7.26981603        3       0.00000000       0.00065406       0.00469642      -0.00499562
Pd       2.91145957       3.37280007       7.26475490        3       0.00000000      -0.00510871      -0.00759019       0.00105444
Pd       5.80780857       3.37072351       7.25632781        3       0.00000000       0.00753522      -0.00770567       0.00445673
Pd       8.70272498       3.36591330       7.26280361        3       0.00000000      -0.00275047       0.00045165       0.00483508
Pd       1.46361548       5.86876565       7.26549743        3       0.00000000      -0.00252073       0.00019356      -0.00012245
Pd       4.36533331       5.86905543       7.25399893        3       0.00000000      -0.00438552       0.01198794      -0.00437254
Pd       7.25591062       5.87434558       7.26507847        3       0.00000000       0.00419059      -0.00049721      -0.00188088
Pd      10.13848568       5.86966101       7.28110651        3       0.00000000       0.00712350       0.00415481      -0.00092669
Pd       0.02640151       8.37227935       7.26617958        3       0.00000000      -0.00566369      -0.00022630      -0.00324802
Pd       2.91459326       8.37636158       7.25021483        3       0.00000000       0.00276546       0.00588017      -0.00364050
Pd       5.80441722       8.37703709       7.25544990        3       0.00000000       0.00122516       0.00542365       0.00008954
Pd       8.69522931       8.37383814       7.26944900        3       0.00000000      -0.00066492      -0.00059993      -0.00377394
Ag       0.01576766       1.69630549       9.55533188        2       0.00000000      -0.00084395       0.00176744       0.00400721
Ag       2.90944927       1.70532335       9.56929302        2       0.00000000      -0.00041489       0.00181361      -0.00262489
Ag       5.81221028       1.69661423       9.55968656        2       0.00000000      -0.00185253      -0.00581425       0.00664031
Ag       8.69855334       1.69894184       9.57012027        2       0.00000000       0.00470753      -0.00101825       0.00399281
Ag       1.45761752       4.20069837       9.58661584        2       0.00000000       0.01024021      -0.00412877      -0.01875935
Ag       4.36491910       4.20181160       9.57473856        2       0.00000000      -0.00887587       0.00698999      -0.00687476
Ag       7.26161974       4.20616890       9.56073704        2       0.00000000       0.00767303       0.00318196       0.00088047
Ag      10.14341131       4.21310642       9.59021449        2       0.00000000      -0.00417160       0.00129309      -0.00165267
Ag       0.01950973       6.70471690       9.58686776        2       0.00000000      -0.00031009      -0.00592188      -0.00653893
Ag       2.92530716       6.70790355       9.55154992        2       0.00000000      -0.00632083      -0.00247718      -0.00051700
Ag       5.81288205       6.70792305       9.56599320        2       0.00000000       0.00281866       0.00077197       0.00031609
Ag       8.69263207       6.70930904       9.59556615        2       0.00000000      -0.00140565      -0.00622609      -0.00139377
Ag       1.47850227       9.20695110       9.57418175        2       0.00000000      -0.00351236      -0.00172293      -0.00303631
Ag       4.35526870       9.22113704       9.55335470        2       0.00000000       0.00030431      -0.00145616       0.00507325
Ag       7.24373941       9.20953407       9.57119717        2       0.00000000       0.00317607       0.00360594       0.00776768
Ag      10.15201374       9.20441996       9.56916419        2       0.00000000      -0.00622086       0.00598399      -0.00197527
Ag       0.03166296       0.01000012      12.02406657        1       0.00000000      -0.01460455      -0.00988227      -0.01192602
Ag       2.90477992       0.03281534      12.12623087        1       0.00000000      -0.00882527      -0.00409495      -0.00598091
Ag       5.77964680       0.02333754      12.11572717        1       0.00000000       0.00347661      -0.00745142      -0.00169759
Ag       8.71233342       0.05817250      11.99793765        1       0.00000000      -0.00398000       0.01829585      -0.00304408
Ag       1.45582629       2.50098038      12.11251996        1       0.00000000      -0.00162537       0.00741395       0.00268009
Ag       4.34819181       2.53530227      12.07057593        1       0.00000000       0.01997238       0.00544184       0.00018654
Ag       7.22952232       2.53128810      12.06996439        1       0.00000000       0.01360925      -0.01351925       0.00801746
Ag      10.15555094       2.53314289      12.06784452        1       0.00000000      -0.00246395      -0.00051470      -0.00021642
Ag       0.07927521       5.06131563      12.22348151        1       0.00000000      -0.00404988      -0.01433467      -0.00202776
Ag       2.93070215       5.04058552      12.01263527        1       0.00000000       0.01696200       0.01041324      -0.00022882
Ag       5.79653686       5.04230942      12.06964340        1       0.00000000      -0.00427930       0.00512194      -0.00206249
Ag       8.71151643       5.03845514      12.20978044        1       0.00000000      -0.00031714      -0.00591501       0.01157340
Ag       1.49625822       7.54328737      12.02735265        1       0.00000000       0.00834715       0.01674769      -0.01226426
Ag       4.35979960       7.54492069      12.01029638        1       0.00000000      -0.01319044      -0.00762045      -0.00958824
Ag       7.24973133       7.58540423      12.19955710        1       0.00000000      -0.00091889      -0.00184727       0.01127848
Ag      10.15386485       7.57213153      12.10604645        1       0.00000000      -0.01804952       0.01341846       0.00071915
H       11.60046300       3.32229872      12.90552639        0       1.00000000       0.00790638       0.00099768      -0.00006075
H        1.41750771       0.80877255      12.88907329        0       1.00000000       0.00814903      -0.01194447       0.00701568
H        3.82088838       6.17672085      15.28003159        0       1.00000000      -0.00521592       0.00125305       0.00810244
H        0.81451515       8.26718736      15.31329655        0       1.00000000       0.00776620       0.02087285      -0.00424151
H        4.35259229       0.88842533      12.88905094        0       1.00000000      -0.01487198      -0.01385324       0.00622344
H        5.76007929       3.38231976      12.85554100        0       1.00000000      -0.01070663      -0.01203046       0.00373426
H        8.77932896       8.51767691      12.90975482        0       1.00000000       0.01138395       0.00116995      -0.01496515
H        9.52271024       0.65994718      15.38513396        0       1.00000000       0.00216338      -0.01794295      -0.00479540
H        0.72733531      -1.02343074      15.46667842        0       1.00000000      -0.00493020      -0.02503950      -0.00310775
H        7.19328666       5.87894090      12.90377366        0       1.00000000      -0.00194867       0.00556603       0.01332946
H        1.62566215       5.94743513      12.90204081        0       1.00000000      -0.00787241       0.00127601       0.00525196
H        3.78167543       6.92278335      15.32051186        0       1.00000000      -0.00389707       0.00955879      -0.00399623
H        8.69189671       3.24793389      12.89001485        0       1.00000000       0.00741637      -0.00699232       0.00096163
H        5.70991352       8.37418487      12.90350483        0       1.00000000       0.01246531       0.01108798      -0.00154220
H       10.18462417       5.94003822      12.93221128        0       1.00000000      -0.00671577       0.01508271       0.00340015
H        9.25863445       1.35922949      15.39974669        0       1.00000000       0.00499704      -0.00314268       0.00006225
